2D DEM equivalent sim initial grain coords

1 atoms
1 atom types
0.0 0.321 xlo xhi
0.0 0.84 ylo yhi
-0.008075 0.008075 zlo zhi

Atoms

	100000 1 0.01516 541.702 0.089 0.182 0.0
